id,composition,roost_ensemble_mean,e_hull_from_roost
378,Li2S2N1,-0.2655447244644165,0.6937375373808214
379,Li2S1F6,-2.6124279737472533,-0.039710905946327646
380,Li3B5S8,-0.9678940773010254,-0.008779225407416824
381,Li3S8I5,-0.4961760461330414,0.07424192230445897
382,Li11S3,-1.0030125617980956,-0.03631749255702443
383,Li2S6N1,-0.4497242212295532,0.20995154769240404
384,Li17In5S6,-0.8841006398200989,0.17357004522183794
385,Li1Pb5S2,-0.414807516336441,0.16134272902814295
386,Li2Ga1S6,-0.800669264793396,0.11604437988253014
387,Li2C1S6,-0.4508348166942596,0.2925595278229359
388,Li2C2S1,-0.3662976682186126,0.535951063073054
389,Li3Hg5S8,-0.6058975219726562,0.07764412173270119
390,Ba2Li2S1,-0.7613000452518464,0.17107957737315327
391,Sr1Li2S2,-1.8602447867393492,3.083651065227677e-05
392,Sr1Li2S6,-1.0380024313926697,0.13868343410336248
393,Li2Sn19S15,-0.6482037484645844,0.019850078485646128
394,Li3Al8S5,-0.8326226830482483,0.15470831449081468
395,Li17S6I5,-1.371601116657257,0.1030630198457192
396,Li6Si4S1,-0.4192181527614593,0.12067973003345461
397,Li17Al5S6,-0.8565968096256256,0.17353508223449254
398,Li6Si1S4,-1.3973464727401734,-0.029018123194718193
399,Li1Zn5S2,-0.4562504589557647,0.22442961341774753
400,Li1Ca5S2,-0.8207723379135132,0.3824991446385704
401,Li2Al1S6,-0.8972040593624115,0.13244446031351553
402,Li2Hg1S2,-1.0084823369979858,0.04537999491868128
403,Li2Pb2S1,-0.5872144222259521,0.31503430906571395
404,Li6Ca1S4,-1.6867436647415162,-0.01949813133242473
405,Li2Hg1S6,-0.5660007715225219,0.13191113108991304
406,Li2S19O15,-1.1590059638023376,0.22982155292798412
407,Li2Al2S1,-0.6171484053134918,0.28510032597817514
408,Li1Mg2S1,-0.7482727706432343,0.24551686799476025
409,Li17Sn5S6,-0.9166454136371612,0.1695056317943867
410,Li2Ca1S6,-0.977590584754944,0.1700881950797124
411,Li2S2O1,-0.993084716796875,0.5865167034166665
412,Li1S5Cl2,-0.8635278344154358,-0.11609178150397836
413,Li17Si5S6,-0.852888411283493,0.17754027645247572
414,Li6Cd1S4,-1.384498155117035,0.00805567329205692
415,Li2S15Cl19,-0.8364915490150452,0.0470945209039354
416,Li1S2N5,0.0303835749626159,0.36580523838523515
417,Li17S6Cl5,-1.6840818166732787,0.0458011979546975
418,Li3As8S5,-0.5676587045192718,0.029078121222915643
419,Li2Zn6S1,-0.3108875632286071,0.19036173193342998
420,Li2Te1S6,-0.7148112058639526,-0.04169033830923885
421,Li1S1F2,-2.0789462327957158,0.15969616711313828
422,Li2S19N15,-0.0264171719551086,0.2414789782193291
423,Li11S5,-1.514256513118744,-0.10449287047551392
424,Li1S1I2,-0.4324433505535126,0.29723856751940403
425,Li2Se2S1,-1.0288603246212005,-0.08354340212715305
426,Li1B2S1,-0.4619134962558746,0.26926351688648703
427,Li2Ga1S2,-1.2974539875984192,-0.014702507681751742
428,Li3B8S5,-0.5793911218643188,0.13374663423377164
429,Li2In6S1,-0.3157044887542725,0.18554480640776505
430,Li2Sn15S19,-0.7684598445892334,0.005444574374887212
431,Li1Pb2S1,-0.5607957065105438,0.1992414284373727
432,Li6Ga1S4,-1.4046170949935912,-0.0013221211299545566
433,Li2S1N2,-0.5488145887851715,0.35343414250649496
434,Li17Pb6S5,-0.7633498549461365,0.17287220608808906
435,Li2Al6S1,-0.2937380075454712,0.20751128761656723
436,Ba15Li2S19,-2.013018584251404,0.10394585860160399
437,Li17S5Cl6,-1.7170384407043455,0.004366318127500435